 Gaussian 16, Revision A.03,

 ----------------------------------------------------------------------
 #p b3lyp/6-31G(d) opt=(MaxStep=10,MaxCycles=1000) freq scf=(MaxCycle=2
 000,NoVarAcc,NoIncFock) scrf=(iefpcm,read,solvent=water)
 ----------------------------------------------------------------------

 ---------------
 2Mep.n.20_WATER
 ---------------
 Symbolic Z-matrix:
 Charge =  0 Multiplicity = 1

 SCF Done:  E(RB3LYP) =  -632.453172297     A.U. after   13 cycles
 SCF Done:  E(RB3LYP) =  -632.453065975     A.U. after   10 cycles
 SCF Done:  E(RB3LYP) =  -632.452592434     A.U. after   11 cycles
 SCF Done:  E(RB3LYP) =  -632.453166181     A.U. after   11 cycles
 SCF Done:  E(RB3LYP) =  -632.453115082     A.U. after   10 cycles
 SCF Done:  E(RB3LYP) =  -632.453153617     A.U. after    9 cycles
 SCF Done:  E(RB3LYP) =  -632.453170632     A.U. after    9 cycles
 SCF Done:  E(RB3LYP) =  -632.453137113     A.U. after   10 cycles
 SCF Done:  E(RB3LYP) =  -632.453151548     A.U. after    8 cycles
 SCF Done:  E(RB3LYP) =  -632.453171980     A.U. after    9 cycles
 SCF Done:  E(RB3LYP) =  -632.453161462     A.U. after    9 cycles
 SCF Done:  E(RB3LYP) =  -632.453158570     A.U. after    7 cycles
 SCF Done:  E(RB3LYP) =  -632.453171862     A.U. after    9 cycles
 SCF Done:  E(RB3LYP) =  -632.453159547     A.U. after    9 cycles
 Optimization completed.
    -- Stationary point found.
 Normal termination of Gaussian 16 at Thu Mar 30 09:22:51 2023.

 --------------------------------------------------------------------
 #P Geom=AllCheck Guess=TCheck SCRF=Check GenChk RB3LYP/6-31G(d) Freq
 --------------------------------------------------------------------

 Structure from the checkpoint file:  "2Mep.n.20_WATER.chk"
 ---------------
 2Mep.n.20_WATER
 ---------------
 Charge =  0 Multiplicity = 1

 SCF Done:  E(RB3LYP) =  -632.453159547     A.U. after    1 cycles

  Exact polarizability: 139.074   2.291 142.557  -9.159  -1.897 131.497
 Approx polarizability: 146.579   6.677 152.349 -15.733  -6.676 143.847

                      1                      2                      3
                      A                      A                      A
 Frequencies --     57.2314                67.0862                80.9309
 Red. masses --      3.7947                 4.0353                 3.5196
 Frc consts  --      0.0073                 0.0107                 0.0136
 IR Inten    --      3.4135                 3.4711                 4.7789

                      4                      5                      6
                      A                      A                      A
 Frequencies --    109.1453               123.6147               138.4293
 Red. masses --      1.0899                 3.1453                 2.3355
 Frc consts  --      0.0076                 0.0283                 0.0264
 IR Inten    --      0.5074                 5.7170                 0.9903

                      7                      8                      9
                      A                      A                      A
 Frequencies --    141.7256               185.7225               204.6025
 Red. masses --      1.4119                 3.1893                 3.1166
 Frc consts  --      0.0167                 0.0648                 0.0769
 IR Inten    --      0.2995                 2.1827                 1.8183

                     10                     11                     12
                      A                      A                      A
 Frequencies --    221.8030               233.4394               295.4531
 Red. masses --      1.2690                 1.8443                 2.5358
 Frc consts  --      0.0368                 0.0592                 0.1304
 IR Inten    --      4.5037                 5.3030                 5.1789

                     13                     14                     15
                      A                      A                      A
 Frequencies --    316.1747               332.1146               352.7163
 Red. masses --      3.5590                 2.4767                 4.0364
 Frc consts  --      0.2096                 0.1610                 0.2959
 IR Inten    --     25.2754                 1.1533                 9.5705

                     16                     17                     18
                      A                      A                      A
 Frequencies --    401.5666               428.8262               537.9739
 Red. masses --      6.4172                 4.0612                 3.4758
 Frc consts  --      0.6097                 0.4400                 0.5927
 IR Inten    --      7.6486                25.9118                 9.4796

                     19                     20                     21
                      A                      A                      A
 Frequencies --    559.1422               602.4018               617.6621
 Red. masses --      3.2610                 2.6937                 3.6722
 Frc consts  --      0.6007                 0.5759                 0.8254
 IR Inten    --      6.4684                 8.4014                12.9775

                     22                     23                     24
                      A                      A                      A
 Frequencies --    621.9731               743.6757               758.4469
 Red. masses --      2.7449                 5.5309                 3.2090
 Frc consts  --      0.6256                 1.8022                 1.0876
 IR Inten    --     20.6040                23.6413                 3.8957

                     25                     26                     27
                      A                      A                      A
 Frequencies --    840.1017               882.1929               905.6620
 Red. masses --      2.5158                 2.1720                 2.0819
 Frc consts  --      1.0461                 0.9959                 1.0061
 IR Inten    --     13.0113                12.4946                 8.1528

                     28                     29                     30
                      A                      A                      A
 Frequencies --    915.1530               940.5205               984.3244
 Red. masses --      2.0080                 2.4807                 1.9876
 Frc consts  --      0.9908                 1.2929                 1.1346
 IR Inten    --      3.0561                 2.0788                35.5398

                     31                     32                     33
                      A                      A                      A
 Frequencies --   1010.1475              1029.3878              1052.5227
 Red. masses --      4.4603                 2.0428                 1.5953
 Frc consts  --      2.6816                 1.2754                 1.0412
 IR Inten    --     22.6080                 9.0509                 8.8158

                     34                     35                     36
                      A                      A                      A
 Frequencies --   1058.5624              1073.1296              1135.8745
 Red. masses --      1.7311                 1.3968                 3.4654
 Frc consts  --      1.1429                 0.9477                 2.6343
 IR Inten    --      8.5551                13.2618                18.6431

                     37                     38                     39
                      A                      A                      A
 Frequencies --   1170.5882              1180.1072              1184.2493
 Red. masses --      1.9365                 1.3451                 2.5736
 Frc consts  --      1.5635                 1.1037                 2.1265
 IR Inten    --     63.9193                 7.5941                79.9855

                     40                     41                     42
                      A                      A                      A
 Frequencies --   1201.7563              1218.9513              1235.1990
 Red. masses --      1.7634                 1.8860                 1.8091
 Frc consts  --      1.5005                 1.6511                 1.6263
 IR Inten    --    102.7691               102.7599                18.1049

                     43                     44                     45
                      A                      A                      A
 Frequencies --   1243.3510              1272.7468              1319.4536
 Red. masses --      3.0177                 1.4580                 2.4115
 Frc consts  --      2.7486                 1.3916                 2.4736
 IR Inten    --     84.4466               104.1012               126.4735

                     46                     47                     48
                      A                      A                      A
 Frequencies --   1348.4878              1368.5754              1388.5261
 Red. masses --      1.5124                 1.3457                 1.4119
 Frc consts  --      1.6204                 1.4850                 1.6038
 IR Inten    --     17.2736                 5.6402                20.3485

                     49                     50                     51
                      A                      A                      A
 Frequencies --   1401.7071              1413.6746              1459.5045
 Red. masses --      1.3342                 1.2527                 3.7085
 Frc consts  --      1.5445                 1.4750                 4.6544
 IR Inten    --     31.9874                17.5541               456.4203

                     52                     53                     54
                      A                      A                      A
 Frequencies --   1487.7986              1490.4615              1494.4373
 Red. masses --      1.1349                 1.1819                 1.0880
 Frc consts  --      1.4802                 1.5469                 1.4317
 IR Inten    --     23.1097                 7.1383                 7.6622

                     55                     56                     57
                      A                      A                      A
 Frequencies --   1497.5215              1505.6933              1506.4226
 Red. masses --      1.0482                 1.0868                 1.0509
 Frc consts  --      1.3850                 1.4517                 1.4051
 IR Inten    --     12.8140                 3.9810                10.7929

                     58                     59                     60
                      A                      A                      A
 Frequencies --   1514.8605              1517.6520              1521.9611
 Red. masses --      1.0954                 1.0495                 1.0629
 Frc consts  --      1.4810                 1.4242                 1.4506
 IR Inten    --      3.8648                12.9806                11.6595

                     61                     62                     63
                      A                      A                      A
 Frequencies --   1542.0303              1697.6026              1785.8689
 Red. masses --      1.1052                 8.8740                11.5996
 Frc consts  --      1.5484                15.0675                21.7968
 IR Inten    --      3.3148               517.4134               458.3658

                     64                     65                     66
                      A                      A                      A
 Frequencies --   3050.6402              3078.0879              3084.2929
 Red. masses --      1.0712                 1.0391                 1.0480
 Frc consts  --      5.8737                 5.8008                 5.8741
 IR Inten    --     75.9902                 5.3157                 5.8087

                     67                     68                     69
                      A                      A                      A
 Frequencies --   3087.9588              3098.2653              3100.0506
 Red. masses --      1.0509                 1.0615                 1.0298
 Frc consts  --      5.9040                 6.0038                 5.8308
 IR Inten    --     59.6758                32.3352                37.1600

                     70                     71                     72
                      A                      A                      A
 Frequencies --   3136.9765              3142.1463              3146.2733
 Red. masses --      1.1018                 1.0994                 1.0990
 Frc consts  --      6.3882                 6.3953                 6.4095
 IR Inten    --     24.3109                13.2547                34.5883

                     73                     74                     75
                      A                      A                      A
 Frequencies --   3153.0167              3157.5861              3178.4727
 Red. masses --      1.1025                 1.1036                 1.1081
 Frc consts  --      6.4579                 6.4827                 6.5960
 IR Inten    --     51.5157                37.7733                31.9783

                     76                     77                     78
                      A                      A                      A
 Frequencies --   3181.3727              3186.7229              3213.3875
 Red. masses --      1.1027                 1.1025                 1.1068
 Frc consts  --      6.5754                 6.5964                 6.7333
 IR Inten    --     18.1607                18.5822                21.7755

 - Thermochemistry -
 -------------------
 Temperature   298.150 Kelvin.  Pressure   1.00000 Atm.
 Atom     1 has atomic number  6 and mass  12.00000

 Molecular mass:   185.10519 amu.
 Principal axes and moments of inertia in atomic units:
                           1         2         3
     Eigenvalues --  1864.286662369.842422753.08368
           X            0.99994   0.00676   0.00900
           Y           -0.00736   0.99766   0.06800
           Z           -0.00852  -0.06806   0.99764
 This molecule is an asymmetric top.
 Rotational symmetry number  1.
 Warning -- assumption of classical behavior for rotation
           may cause significant error
 Rotational temperatures (Kelvin)      0.04646     0.03655     0.03146
 Rotational constants (GHZ):           0.96806     0.76154     0.65553
 Zero-point vibrational energy     627584.1 (Joules/Mol)
                                  149.99621 (Kcal/Mol)
 Warning -- explicit consideration of  21 degrees of freedom as
           vibrations may cause significant error
 Vibrational temperatures:     82.34    96.52   116.44   157.04   177.85
          (Kelvin)            199.17   203.91   267.21   294.38   319.12
                              335.87   425.09   454.90   477.84   507.48
                              577.76   616.99   774.02   804.48   866.72
                              888.68   894.88  1069.98  1091.24  1208.72
                             1269.28  1303.05  1316.70  1353.20  1416.22
                             1453.38  1481.06  1514.35  1523.04  1543.99
                             1634.27  1684.22  1697.91  1703.87  1729.06
                             1753.80  1777.18  1788.90  1831.20  1898.40
                             1940.17  1969.07  1997.78  2016.74  2033.96
                             2099.90  2140.61  2144.44  2150.16  2154.60
                             2166.36  2167.41  2179.55  2183.56  2189.76
                             2218.64  2442.47  2569.47  4389.19  4428.68
                             4437.61  4442.88  4457.71  4460.28  4513.41
                             4520.85  4526.79  4536.49  4543.06  4573.11
                             4577.29  4584.98  4623.35

 Zero-point correction=                           0.239034 (Hartree/Particle)
 Thermal correction to Energy=                    0.253071
 Thermal correction to Enthalpy=                  0.254015
 Thermal correction to Gibbs Free Energy=         0.198481
 Sum of electronic and zero-point Energies=           -632.214125
 Sum of electronic and thermal Energies=              -632.200088
 Sum of electronic and thermal Enthalpies=            -632.199144
 Sum of electronic and thermal Free Energies=         -632.254678

                     E (Thermal)             CV                S
                      KCal/Mol        Cal/Mol-Kelvin    Cal/Mol-Kelvin
 Total                  158.805             50.990            116.882
 Electronic               0.000              0.000              0.000
 Translational            0.889              2.981             41.553
 Rotational               0.889              2.981             30.876
 Vibrational            157.027             45.028             44.452
 Vibration     1          0.596              1.975              4.550
 Vibration     2          0.598              1.970              4.237
 Vibration     3          0.600              1.962              3.868
 Vibration     4          0.606              1.942              3.284
 Vibration     5          0.610              1.929              3.043
 Vibration     6          0.614              1.915              2.825
 Vibration     7          0.615              1.912              2.780
 Vibration     8          0.632              1.859              2.270
 Vibration     9          0.640              1.833              2.091
 Vibration    10          0.648              1.808              1.944
 Vibration    11          0.654              1.790              1.852
 Vibration    12          0.690              1.682              1.443
 Vibration    13          0.703              1.643              1.330
 Vibration    14          0.714              1.611              1.250
 Vibration    15          0.729              1.570              1.154
 Vibration    16          0.767              1.467              0.957
 Vibration    17          0.790              1.407              0.862
 Vibration    18          0.893              1.166              0.570
 Vibration    19          0.915              1.120              0.526
 Vibration    20          0.961              1.027              0.446
 Vibration    21          0.977              0.995              0.420

                           ! Non-Optimized Parameters !
 Normal termination of Gaussian 16 at Thu Mar 30 09:44:29 2023.

 ------------------------------------------
 #p B3LYP/6-31G(d) geom=allcheck guess=read
 ------------------------------------------

 Structure from the checkpoint file:  "2Mep.n.20_WATER.chk"
 ---------------
 2Mep.n.20_WATER
 ---------------
 Charge =  0 Multiplicity = 1

 SCF Done:  E(RB3LYP) =  -632.440107324     A.U. after   12 cycles
 Normal termination of Gaussian 16 at Thu Mar 30 09:46:19 2023.
 Gaussian 16:  ES64L-G16RevA.03 25-Dec-2016

 ----------------------------------------------------------------------
 #p B3LYP/6-31G(d) scrf=(iefpcm,read,solvent=water) geom=allcheck guess
 =read
 ----------------------------------------------------------------------

 Structure from the checkpoint file:  "2Mep.n.20_WATER.chk"
 ---------------
 2Mep.n.20_WATER
 ---------------
 Charge =  0 Multiplicity = 1

                         Standard orientation:
 ---------------------------------------------------------------------
 Center     Atomic      Atomic             Coordinates (Angstroms)
 Number     Number       Type             X           Y           Z
 ---------------------------------------------------------------------
      1          6           0       -2.563658   -1.159284   -1.459331
      2          8           0       -1.386830   -0.459699   -1.010175
      3          6           0       -1.401296   -0.060110    0.271175
      4          8           0       -2.348471   -0.235573    1.013359
      5          6           0       -0.139578    0.730852    0.651725
      6          6           0       -0.043235    0.841451    2.176355
      7          6           0       -0.175209    2.135371   -0.028096
      8          6           0        0.695953    2.001179   -1.284194
      9          6           0        1.783040    1.015242   -0.851830
     10          7           0        1.066901    0.112491    0.063082
     11          6           0        1.338270   -1.201413    0.262313
     12          6           0        2.588253   -1.750285   -0.392259
     13          8           0        0.587318   -1.915726    0.943166
     14          1           0       -2.374621   -1.407279   -2.501278
     15          1           0       -3.443366   -0.520053   -1.370898
     16          1           0       -2.710374   -2.065873   -0.871022
     17          1           0       -0.928399    1.341484    2.575175
     18          1           0        0.036148   -0.148438    2.625857
     19          1           0        0.840053    1.429216    2.437697
     20          1           0       -1.195386    2.461185   -0.242082
     21          1           0        0.264533    2.857246    0.666240
     22          1           0        0.117500    1.577120   -2.108421
     23          1           0        1.110151    2.957035   -1.611254
     24          1           0        2.211774    0.454670   -1.682814
     25          1           0        2.598800    1.527244   -0.326998
     26          1           0        2.733617   -2.775698   -0.054858
     27          1           0        2.488958   -1.748280   -1.482326
     28          1           0        3.470942   -1.157040   -0.140551
 ---------------------------------------------------------------------

 SCF Done:  E(RB3LYP) =  -632.451557796     A.U. after   11 cycles

 The electronic state is 1-A.
 Alpha  occ. eigenvalues --  -19.19646 -19.14106 -19.11485 -14.36346 -10.31857
 Alpha  occ. eigenvalues --  -10.28831 -10.24540 -10.23612 -10.22231 -10.19450
 Alpha  occ. eigenvalues --  -10.18864 -10.18566 -10.17449  -1.10715  -1.03216
 Alpha  occ. eigenvalues --   -1.01716  -0.94502  -0.80702  -0.77818  -0.73146
 Alpha  occ. eigenvalues --   -0.72819  -0.68077  -0.63350  -0.60639  -0.58140
 Alpha  occ. eigenvalues --   -0.54524  -0.50696  -0.49222  -0.47928  -0.47671
 Alpha  occ. eigenvalues --   -0.46550  -0.44571  -0.43823  -0.42963  -0.42202
 Alpha  occ. eigenvalues --   -0.41295  -0.40937  -0.39113  -0.38572  -0.38445
 Alpha  occ. eigenvalues --   -0.37580  -0.35897  -0.35295  -0.34930  -0.33755
 Alpha  occ. eigenvalues --   -0.33347  -0.30583  -0.28413  -0.25401  -0.24081
 Alpha virt. eigenvalues --    0.00726   0.02305   0.08180   0.10741   0.11478
 Alpha virt. eigenvalues --    0.12184   0.13018   0.13343   0.13946   0.15833
 Alpha virt. eigenvalues --    0.16049   0.16530   0.17144   0.17347   0.17573

 Mulliken charges:
               1
     1  C   -0.226020
     2  O   -0.457978
     3  C    0.667925
     4  O   -0.541834
     5  C    0.149102
     6  C   -0.456928
     7  C   -0.325278
     8  C   -0.284045
     9  C   -0.135539
    10  N   -0.431782
    11  C    0.590489
    12  C   -0.548830
    13  O   -0.590758
    14  H    0.181565
    15  H    0.175947
    16  H    0.176720
    17  H    0.160612
    18  H    0.168612
    19  H    0.153389
    20  H    0.172925
    21  H    0.169620
    22  H    0.166482
    23  H    0.163370
    24  H    0.177115
    25  H    0.168427
    26  H    0.177729
    27  H    0.192023
    28  H    0.186939
 Sum of Mulliken charges =  -0.00000

 Dipole moment (field-independent basis, Debye):
    X=              3.2799    Y=              3.9163    Z=             -4.9083  Tot=              7.0843
 Quadrupole moment (field-independent basis, Debye-Ang):
   XX=            -71.6395   YY=            -76.5293   ZZ=            -77.0168
   XY=              1.5592   XZ=              5.2271   YZ=              6.3489

 Normal termination of Gaussian 16 at Thu Mar 30 09:48:19 2023.
