 Gaussian 16, Revision A.03,

 ----------------------------------------------------------------------
 #p b3lyp/6-31G(d) opt=(MaxStep=10,MaxCycles=1000) freq scf=(MaxCycle=2
 000,NoVarAcc,NoIncFock) scrf=(iefpcm,read,solvent=water)
 ----------------------------------------------------------------------

 ---------------
 2Mep.n.39_WATER
 ---------------
 Symbolic Z-matrix:
 Charge =  0 Multiplicity = 1

 SCF Done:  E(RB3LYP) =  -632.453912303     A.U. after   13 cycles
 SCF Done:  E(RB3LYP) =  -632.453544867     A.U. after   11 cycles
 SCF Done:  E(RB3LYP) =  -632.453495755     A.U. after   11 cycles
 SCF Done:  E(RB3LYP) =  -632.453765413     A.U. after   11 cycles
 SCF Done:  E(RB3LYP) =  -632.453773208     A.U. after    9 cycles
 SCF Done:  E(RB3LYP) =  -632.453829897     A.U. after    9 cycles
 SCF Done:  E(RB3LYP) =  -632.453862986     A.U. after    8 cycles
 SCF Done:  E(RB3LYP) =  -632.453853594     A.U. after    7 cycles
 SCF Done:  E(RB3LYP) =  -632.453841092     A.U. after    7 cycles
 SCF Done:  E(RB3LYP) =  -632.453840490     A.U. after    7 cycles
 SCF Done:  E(RB3LYP) =  -632.453841078     A.U. after    7 cycles
 Optimization completed.
    -- Stationary point found.
 Normal termination of Gaussian 16 at Thu Mar 30 09:13:14 2023.

 --------------------------------------------------------------------
 #P Geom=AllCheck Guess=TCheck SCRF=Check GenChk RB3LYP/6-31G(d) Freq
 --------------------------------------------------------------------

 Structure from the checkpoint file:  "2Mep.n.39_WATER.chk"
 ---------------
 2Mep.n.39_WATER
 ---------------
 Charge =  0 Multiplicity = 1

 SCF Done:  E(RB3LYP) =  -632.453841078     A.U. after    1 cycles

  Exact polarizability: 140.543   1.771 140.643  10.091   0.665 130.977
 Approx polarizability: 148.836   4.074 146.619  17.747   3.659 146.115

                      1                      2                      3
                      A                      A                      A
 Frequencies --     60.3826                68.5027                71.4551
 Red. masses --      1.7037                 2.5408                 3.4812
 Frc consts  --      0.0037                 0.0070                 0.0105
 IR Inten    --      1.0330                 6.1499                 2.5448

                      4                      5                      6
                      A                      A                      A
 Frequencies --    102.0577               124.5687               143.0255
 Red. masses --      2.3022                 2.8640                 2.9138
 Frc consts  --      0.0141                 0.0262                 0.0351
 IR Inten    --      2.1625                 6.3422                 1.7384

                      7                      8                      9
                      A                      A                      A
 Frequencies --    143.6602               182.5383               210.3465
 Red. masses --      1.3376                 3.4595                 2.6500
 Frc consts  --      0.0163                 0.0679                 0.0691
 IR Inten    --      1.1590                 4.3189                 0.9634

                     10                     11                     12
                      A                      A                      A
 Frequencies --    216.2381               263.9216               286.3053
 Red. masses --      2.5401                 1.0671                 2.7948
 Frc consts  --      0.0700                 0.0438                 0.1350
 IR Inten    --      1.4638                 1.0793                 7.9681

                     13                     14                     15
                      A                      A                      A
 Frequencies --    320.7512               330.4404               359.8846
 Red. masses --      3.3914                 2.3524                 4.2700
 Frc consts  --      0.2056                 0.1513                 0.3258
 IR Inten    --     26.6749                 0.4405                 8.2833

                     16                     17                     18
                      A                      A                      A
 Frequencies --    402.4216               423.0920               520.5726
 Red. masses --      6.7050                 3.7872                 3.2313
 Frc consts  --      0.6398                 0.3994                 0.5159
 IR Inten    --      9.7809                24.2051                 5.0184

                     19                     20                     21
                      A                      A                      A
 Frequencies --    546.7205               611.1368               625.8143
 Red. masses --      3.5110                 3.1348                 3.2580
 Frc consts  --      0.6183                 0.6898                 0.7518
 IR Inten    --     14.7170                16.2703                 7.9091

                     22                     23                     24
                      A                      A                      A
 Frequencies --    643.2804               738.7879               779.8797
 Red. masses --      2.5486                 6.5069                 3.9731
 Frc consts  --      0.6214                 2.0925                 1.4237
 IR Inten    --     11.4132                30.1181                 6.6564

                     25                     26                     27
                      A                      A                      A
 Frequencies --    855.9858               883.5777               890.9872
 Red. masses --      2.2777                 2.3764                 1.7559
 Frc consts  --      0.9833                 1.0931                 0.8213
 IR Inten    --      0.8810                17.2635                 7.9810

                     28                     29                     30
                      A                      A                      A
 Frequencies --    923.9145               945.0203               979.3235
 Red. masses --      2.1780                 2.2690                 1.8468
 Frc consts  --      1.0954                 1.1939                 1.0436
 IR Inten    --      3.9954                 1.6288                25.6680

                     31                     32                     33
                      A                      A                      A
 Frequencies --   1003.5844              1027.5621              1048.1033
 Red. masses --      2.5823                 2.1743                 1.9577
 Frc consts  --      1.5324                 1.3527                 1.2671
 IR Inten    --     22.0348                 8.6639                14.6807

                     34                     35                     36
                      A                      A                      A
 Frequencies --   1062.2720              1078.3609              1142.5437
 Red. masses --      1.7093                 1.7725                 2.4274
 Frc consts  --      1.1364                 1.2144                 1.8670
 IR Inten    --     12.8025                14.2111                 9.8875

                     37                     38                     39
                      A                      A                      A
 Frequencies --   1170.8752              1181.6682              1188.9191
 Red. masses --      2.1733                 1.2816                 2.8599
 Frc consts  --      1.7554                 1.0544                 2.3818
 IR Inten    --    102.2129                 2.2264                69.1257

                     40                     41                     42
                      A                      A                      A
 Frequencies --   1203.9831              1223.1004              1231.5102
 Red. masses --      1.8589                 1.6567                 1.6077
 Frc consts  --      1.5876                 1.4602                 1.4366
 IR Inten    --     81.6973                99.2413                14.0950

                     43                     44                     45
                      A                      A                      A
 Frequencies --   1256.3721              1289.1101              1315.4326
 Red. masses --      2.2357                 1.8970                 2.8111
 Frc consts  --      2.0792                 1.8574                 2.8659
 IR Inten    --     59.5072               104.1287               171.8372

                     46                     47                     48
                      A                      A                      A
 Frequencies --   1347.2401              1363.8113              1388.9739
 Red. masses --      1.4840                 1.3418                 1.3980
 Frc consts  --      1.5870                 1.4705                 1.5891
 IR Inten    --      5.1061                 7.6320                16.1946

                     49                     50                     51
                      A                      A                      A
 Frequencies --   1405.5791              1412.5936              1463.4380
 Red. masses --      1.3542                 1.2674                 3.6759
 Frc consts  --      1.5763                 1.4900                 4.6384
 IR Inten    --     42.0402                21.6226               461.1964

                     52                     53                     54
                      A                      A                      A
 Frequencies --   1486.4248              1494.3898              1498.6217
 Red. masses --      1.1531                 1.1899                 1.0487
 Frc consts  --      1.5011                 1.5656                 1.3877
 IR Inten    --     28.4382                 8.2841                14.1419

                     55                     56                     57
                      A                      A                      A
 Frequencies --   1499.9586              1505.5084              1511.1637
 Red. masses --      1.0788                 1.0875                 1.0530
 Frc consts  --      1.4301                 1.4522                 1.4168
 IR Inten    --      6.2876                 2.2739                10.7499

                     58                     59                     60
                      A                      A                      A
 Frequencies --   1515.4216              1517.8255              1525.3490
 Red. masses --      1.1032                 1.0470                 1.0535
 Frc consts  --      1.4927                 1.4211                 1.4442
 IR Inten    --      3.0623                13.5556                10.9262

                     61                     62                     63
                      A                      A                      A
 Frequencies --   1543.0951              1699.3881              1788.0989
 Red. masses --      1.1039                 8.7268                11.6178
 Frc consts  --      1.5487                14.8487                21.8855
 IR Inten    --      5.8984               513.9870               465.7590

                     64                     65                     66
                      A                      A                      A
 Frequencies --   3053.4760              3075.1403              3086.9773
 Red. masses --      1.0692                 1.0381                 1.0392
 Frc consts  --      5.8734                 5.7841                 5.8348
 IR Inten    --     70.1574                 5.7320                13.0970

                     67                     68                     69
                      A                      A                      A
 Frequencies --   3089.6760              3095.9041              3097.1484
 Red. masses --      1.0615                 1.0298                 1.0613
 Frc consts  --      5.9701                 5.8156                 5.9979
 IR Inten    --     47.7527                41.1397                25.7397

                     70                     71                     72
                      A                      A                      A
 Frequencies --   3129.9979              3137.1563              3144.6734
 Red. masses --      1.0955                 1.1010                 1.1016
 Frc consts  --      6.3235                 6.3841                 6.4185
 IR Inten    --     45.5202                 8.8382                34.7237

                     73                     74                     75
                      A                      A                      A
 Frequencies --   3153.8133              3161.8433              3173.9924
 Red. masses --      1.1062                 1.1031                 1.1081
 Frc consts  --      6.4825                 6.4972                 6.5771
 IR Inten    --     50.5374                29.6471                32.6379

                     76                     77                     78
                      A                      A                      A
 Frequencies --   3176.9625              3183.1993              3207.6377
 Red. masses --      1.1036                 1.1023                 1.1068
 Frc consts  --      6.5625                 6.5808                 6.7094
 IR Inten    --     22.1494                18.6076                22.3870

 - Thermochemistry -
 -------------------
 Temperature   298.150 Kelvin.  Pressure   1.00000 Atm.
 Atom     1 has atomic number  6 and mass  12.00000

 Molecular mass:   185.10519 amu.
 Principal axes and moments of inertia in atomic units:
                           1         2         3
     Eigenvalues --  1833.751442351.767332924.64436
           X            0.99982   0.01385  -0.01296
           Y           -0.01439   0.99900  -0.04224
           Z            0.01237   0.04242   0.99902
 This molecule is an asymmetric top.
 Rotational symmetry number  1.
 Warning -- assumption of classical behavior for rotation
           may cause significant error
 Rotational temperatures (Kelvin)      0.04723     0.03683     0.02962
 Rotational constants (GHZ):           0.98418     0.76740     0.61708
 Zero-point vibrational energy     628114.1 (Joules/Mol)
                                  150.12286 (Kcal/Mol)
 Warning -- explicit consideration of  20 degrees of freedom as
           vibrations may cause significant error
 Vibrational temperatures:     86.88    98.56   102.81   146.84   179.23
          (Kelvin)            205.78   206.69   262.63   302.64   311.12
                              379.72   411.93   461.49   475.43   517.79
                              578.99   608.74   748.99   786.61   879.29
                              900.41   925.54  1062.95  1122.07  1231.57
                             1271.27  1281.93  1329.31  1359.67  1409.03
                             1443.93  1478.43  1507.99  1528.37  1551.52
                             1643.87  1684.63  1700.16  1710.59  1732.26
                             1759.77  1771.87  1807.64  1854.74  1892.61
                             1938.38  1962.22  1998.42  2022.31  2032.41
                             2105.56  2138.63  2150.09  2156.18  2158.11
                             2166.09  2174.23  2180.35  2183.81  2194.64
                             2220.17  2445.04  2572.68  4393.27  4424.44
                             4441.47  4445.35  4454.32  4456.11  4503.37
                             4513.67  4524.48  4537.63  4549.19  4566.67
                             4570.94  4579.91  4615.08

 Zero-point correction=                           0.239236 (Hartree/Particle)
 Thermal correction to Energy=                    0.253239
 Thermal correction to Enthalpy=                  0.254183
 Thermal correction to Gibbs Free Energy=         0.198663
 Sum of electronic and zero-point Energies=           -632.214605
 Sum of electronic and thermal Energies=              -632.200602
 Sum of electronic and thermal Enthalpies=            -632.199658
 Sum of electronic and thermal Free Energies=         -632.255178

                     E (Thermal)             CV                S
                      KCal/Mol        Cal/Mol-Kelvin    Cal/Mol-Kelvin
 Total                  158.910             50.867            116.852
 Electronic               0.000              0.000              0.000
 Translational            0.889              2.981             41.553
 Rotational               0.889              2.981             30.912
 Vibrational            157.132             44.905             44.387
 Vibration     1          0.597              1.973              4.445
 Vibration     2          0.598              1.969              4.196
 Vibration     3          0.598              1.968              4.113
 Vibration     4          0.604              1.948              3.415
 Vibration     5          0.610              1.928              3.028
 Vibration     6          0.616              1.910              2.763
 Vibration     7          0.616              1.909              2.755
 Vibration     8          0.630              1.864              2.302
 Vibration     9          0.643              1.825              2.041
 Vibration    10          0.645              1.816              1.990
 Vibration    11          0.670              1.739              1.636
 Vibration    12          0.684              1.699              1.496
 Vibration    13          0.706              1.634              1.306
 Vibration    14          0.713              1.615              1.258
 Vibration    15          0.734              1.555              1.123
 Vibration    16          0.768              1.465              0.954
 Vibration    17          0.785              1.420              0.882
 Vibration    18          0.876              1.204              0.609
 Vibration    19          0.902              1.147              0.551
 Vibration    20          0.970              1.008              0.431

                           ! Non-Optimized Parameters !
 Normal termination of Gaussian 16 at Thu Mar 30 09:34:54 2023.

 ------------------------------------------
 #p B3LYP/6-31G(d) geom=allcheck guess=read
 ------------------------------------------

 Structure from the checkpoint file:  "2Mep.n.39_WATER.chk"
 ---------------
 2Mep.n.39_WATER
 ---------------
 Charge =  0 Multiplicity = 1

 SCF Done:  E(RB3LYP) =  -632.440411553     A.U. after   12 cycles
 Normal termination of Gaussian 16 at Thu Mar 30 09:36:45 2023.
 Gaussian 16:  ES64L-G16RevA.03 25-Dec-2016

 ----------------------------------------------------------------------
 #p B3LYP/6-31G(d) scrf=(iefpcm,read,solvent=water) geom=allcheck guess
 =read
 ----------------------------------------------------------------------

 Structure from the checkpoint file:  "2Mep.n.39_WATER.chk"
 ---------------
 2Mep.n.39_WATER
 ---------------
 Charge =  0 Multiplicity = 1

                         Standard orientation:
 ---------------------------------------------------------------------
 Center     Atomic      Atomic             Coordinates (Angstroms)
 Number     Number       Type             X           Y           Z
 ---------------------------------------------------------------------
      1          6           0        2.872150    0.803201   -1.307444
      2          8           0        1.560363    0.303515   -0.986972
      3          6           0        1.429812   -0.259122    0.224554
      4          8           0        2.352687   -0.392384    1.005012
      5          6           0        0.015510   -0.804313    0.449522
      6          6           0       -0.188213   -1.143108    1.929027
      7          6           0       -0.230033   -2.030387   -0.468977
      8          6           0       -1.726340   -1.949072   -0.801170
      9          6           0       -1.964176   -0.444841   -0.964921
     10          7           0       -1.001743    0.151568   -0.027317
     11          6           0       -0.966140    1.450896    0.349769
     12          6           0       -2.062805    2.342827   -0.189522
     13          8           0       -0.071880    1.879175    1.095135
     14          1           0        2.793844    1.201284   -2.317198
     15          1           0        3.606816   -0.002574   -1.269256
     16          1           0        3.157184    1.591018   -0.608034
     17          1           0        0.597831   -1.818320    2.271922
     18          1           0       -0.156089   -0.232679    2.528605
     19          1           0       -1.157735   -1.627432    2.067514
     20          1           0        0.360957   -1.929729   -1.382809
     21          1           0        0.057763   -2.959494    0.025797
     22          1           0       -1.989022   -2.509178   -1.700532
     23          1           0       -2.324481   -2.337410    0.028089
     24          1           0       -1.750365   -0.117274   -1.989297
     25          1           0       -2.982991   -0.142084   -0.716422
     26          1           0       -1.930022    3.345791    0.215187
     27          1           0       -2.027485    2.390150   -1.282256
     28          1           0       -3.051950    1.968026    0.089485
 ---------------------------------------------------------------------

 SCF Done:  E(RB3LYP) =  -632.452305307     A.U. after   11 cycles

 The electronic state is 1-A.
 Alpha  occ. eigenvalues --  -19.19501 -19.14061 -19.11446 -14.36342 -10.31833
 Alpha  occ. eigenvalues --  -10.28761 -10.24432 -10.23588 -10.22290 -10.19313
 Alpha  occ. eigenvalues --  -10.19115 -10.18553 -10.17448  -1.10639  -1.03217
 Alpha  occ. eigenvalues --   -1.01671  -0.94664  -0.80915  -0.77874  -0.73114
 Alpha  occ. eigenvalues --   -0.72754  -0.68217  -0.63636  -0.60055  -0.58630
 Alpha  occ. eigenvalues --   -0.54472  -0.50288  -0.49113  -0.47949  -0.47744
 Alpha  occ. eigenvalues --   -0.47293  -0.45147  -0.43520  -0.42380  -0.41939
 Alpha  occ. eigenvalues --   -0.41480  -0.40618  -0.39173  -0.38950  -0.38484
 Alpha  occ. eigenvalues --   -0.37422  -0.35873  -0.35293  -0.34924  -0.34436
 Alpha  occ. eigenvalues --   -0.33417  -0.30416  -0.28097  -0.25371  -0.24128
 Alpha virt. eigenvalues --    0.00564   0.02480   0.08180   0.10391   0.11422
 Alpha virt. eigenvalues --    0.12145   0.12471   0.13489   0.14573   0.15614
 Alpha virt. eigenvalues --    0.16114   0.16339   0.16816   0.17430   0.17816

 Mulliken charges:
               1
     1  C   -0.224972
     2  O   -0.461920
     3  C    0.664172
     4  O   -0.544312
     5  C    0.152900
     6  C   -0.454471
     7  C   -0.313889
     8  C   -0.304112
     9  C   -0.122214
    10  N   -0.434560
    11  C    0.590118
    12  C   -0.546947
    13  O   -0.591103
    14  H    0.181086
    15  H    0.175302
    16  H    0.175769
    17  H    0.160864
    18  H    0.168444
    19  H    0.154250
    20  H    0.168636
    21  H    0.171779
    22  H    0.167685
    23  H    0.166735
    24  H    0.169770
    25  H    0.176060
    26  H    0.177203
    27  H    0.188771
    28  H    0.188956
 Sum of Mulliken charges =  -0.00000

 Dipole moment (field-independent basis, Debye):
    X=             -4.2751    Y=             -2.4987    Z=             -5.0707  Tot=              7.0874
 Quadrupole moment (field-independent basis, Debye-Ang):
   XX=            -70.3752   YY=            -75.6596   ZZ=            -78.4428
   XY=              1.2634   XZ=             -6.5168   YZ=             -4.5167

 Normal termination of Gaussian 16 at Thu Mar 30 09:38:47 2023.
